                         Program Version 4.2.0 -  RELEASE  -
|  1> # ================================================================
|  2> # Orca input file made in Gabedit
|  3> # ================================================================
|  4> ! RKS  TightSCF mPW1PW
|  5> ! PMODEL  6-311G(2d,2p)
|  6> %output
|  7>      Print[ P_Hirshfeld] 1
|  8>  end #output
|  9> * xyz 0   1
| 10> O -0.046153000 -0.751257000 0.000000000
| 11> C -0.046153000 0.658469000 0.000000000
| 12> H 0.857779000 -1.062372000 0.000000000
| 13> H -1.086394000 0.976180000 0.000000000
| 14> H 0.437376000 1.072716000 0.889654000
| 15> H 0.437376000 1.072716000 -0.889654000
| 16> *
| 17>
| 18>
| 19>
| 20>                          ****END OF INPUT****

CARTESIAN COORDINATES (ANGSTROEM)
---------------------------------
  O     -0.046153   -0.751257    0.000000
  C     -0.046153    0.658469    0.000000
  H      0.857779   -1.062372    0.000000
  H     -1.086394    0.976180    0.000000
  H      0.437376    1.072716    0.889654
  H      0.437376    1.072716   -0.889654

 Total Charge           Charge          ....    0
 Multiplicity           Mult            ....    1
 Number of Electrons    NEL             ....   18
 Basis Dimension        Dim             ....   82

ORBITAL ENERGIES
----------------

  NO   OCC          E(Eh)            E(eV)
   0   2.0000     -19.201789      -522.5072
   1   2.0000     -10.265968      -279.3512
   2   2.0000      -1.045113       -28.4390
   3   2.0000      -0.701828       -19.0977
   4   2.0000      -0.522810       -14.2264
   5   2.0000      -0.452241       -12.3061
   6   2.0000      -0.439016       -11.9462
   7   2.0000      -0.346507        -9.4289
   8   2.0000      -0.283859        -7.7242
   9   0.0000       0.049265         1.3406
  10   0.0000       0.084077         2.2879
  11   0.0000       0.124923         3.3993
  12   0.0000       0.128254         3.4900
  13   0.0000       0.194484         5.2922

MULLIKEN ATOMIC CHARGES
-----------------------
   0 O :   -0.466940
   1 C :    0.207727
   2 H :    0.224259
   3 H :    0.031356
   4 H :    0.001798
   5 H :    0.001798
Sum of atomic charges:    0.0000000

LOEWDIN ATOMIC CHARGES
----------------------
   0 O :    0.244007
   1 C :    0.033506
   2 H :   -0.130159
   3 H :   -0.039063
   4 H :   -0.054146
   5 H :   -0.054146

  Mayer bond orders larger than 0.100000
B(  0-O ,  1-C ) :   0.9664 B(  0-O ,  2-H ) :   0.9924 B(  1-C ,  3-H ) :   0.9821
B(  1-C ,  4-H ) :   0.9759 B(  1-C ,  5-H ) :   0.9759

FINAL SINGLE POINT ENERGY      -115.728715341845

DIPOLE MOMENT
-------------
                                X             Y             Z
Electronic contribution:     -0.15703      -1.83900       0.00000
Nuclear contribution   :      0.68093       2.16007       0.00000
                        -----------------------------------------
Total Dipole Moment    :      0.52390       0.32107       0.00000
                        -----------------------------------------
Magnitude (a.u.)       :      0.61445
Magnitude (Debye)      :      1.56182

Rotational constants in cm-1:     4.311069     0.835736     0.806969
Rotational constants in MHz : 129242.590190 25054.734291 24192.330899

                             ****ORCA TERMINATED NORMALLY****
TOTAL RUN TIME: 0 days 0 hours 0 minutes 9 seconds 169 msec
