                         Program Version 4.2.0 -  RELEASE  -
|  1> # ================================================================
|  2> # Orca input file made in Gabedit
|  3> # ================================================================
|  4> ! RKS   TightSCF  mPW1PW
|  5> ! PrintBasis  PMODEL  6-311G(2df,2pd)
|  6> %output
|  7>      Print[ P_Hirshfeld] 1
|  8>  end #output
|  9> !PAL4
| 10> * xyz -1   1
| 11>  C  -6.030030 0.906370 -0.433280
| 12>  C  -4.602670 0.896510 0.142080
| 13>  H  -6.694960 0.292520 0.178550
| 14>  H  -6.034580 0.515620 -1.453410
| 15>  H  -6.422190 1.925420 -0.452440
| 16>  C  -4.031080 -0.535000 0.183640
| 17>  H  -4.613890 1.312460 1.152030
| 18>  H  -3.962910 1.536630 -0.468680
| 19>  H  -4.702990 -1.179860 0.753740
| 20>  O  -2.754400 -0.529810 0.857100
| 21>  H  -3.911670 -0.941500 -0.825060
| 22>  S  -1.452620 -0.420340 -0.032960
| 23>  O  -0.474630 0.080290 1.111800
| 24>  O  -1.083700 -1.753140 -0.417460
| 25>  O  -1.600940 0.599150 -1.033350
| 26> *
| 27>
| 28>                          ****END OF INPUT****

CARTESIAN COORDINATES (ANGSTROEM)
---------------------------------
  C     -6.030030    0.906370   -0.433280
  C     -4.602670    0.896510    0.142080
  H     -6.694960    0.292520    0.178550
  H     -6.034580    0.515620   -1.453410
  H     -6.422190    1.925420   -0.452440
  C     -4.031080   -0.535000    0.183640
  H     -4.613890    1.312460    1.152030
  H     -3.962910    1.536630   -0.468680
  H     -4.702990   -1.179860    0.753740
  O     -2.754400   -0.529810    0.857100
  H     -3.911670   -0.941500   -0.825060
  S     -1.452620   -0.420340   -0.032960
  O     -0.474630    0.080290    1.111800
  O     -1.083700   -1.753140   -0.417460
  O     -1.600940    0.599150   -1.033350

 Total Charge           Charge          ....   -1
 Multiplicity           Mult            ....    1
 Number of Electrons    NEL             ....   74
 Basis Dimension        Dim             ....  346

ORBITAL ENERGIES
----------------

  NO   OCC          E(Eh)            E(eV)
   0   2.0000     -89.059084     -2423.4209
   1   2.0000     -19.083461      -519.2874
   2   2.0000     -19.007155      -517.2110
   3   2.0000     -18.997063      -516.9364
   4   2.0000     -18.947096      -515.5767
   5   2.0000     -10.158294      -276.4212
   6   2.0000     -10.124487      -275.5013
   7   2.0000     -10.111870      -275.1580
   8   2.0000      -7.978778      -217.1136
   9   2.0000      -5.921249      -161.1254
  10   2.0000      -5.917670      -161.0280
  11   2.0000      -5.917204      -161.0153
  12   2.0000      -0.991009       -26.9667
  13   2.0000      -0.888014       -24.1641
  14   2.0000      -0.837833       -22.7986
  15   2.0000      -0.743822       -20.2404
  16   2.0000      -0.691197       -18.8084
  17   2.0000      -0.591824       -16.1044
  18   2.0000      -0.504983       -13.7413
  19   2.0000      -0.443670       -12.0729
  20   2.0000      -0.377140       -10.2625
  21   2.0000      -0.351229        -9.5574
  22   2.0000      -0.337355        -9.1799
  23   2.0000      -0.328138        -8.9291
  24   2.0000      -0.298446        -8.1211
  25   2.0000      -0.278307        -7.5731
  26   2.0000      -0.270971        -7.3735
  27   2.0000      -0.255176        -6.9437
  28   2.0000      -0.239321        -6.5123
  29   2.0000      -0.229146        -6.2354
  30   2.0000      -0.188939        -5.1413
  31   2.0000      -0.171545        -4.6680
  32   2.0000      -0.158105        -4.3023
  33   2.0000      -0.141085        -3.8391
  34   2.0000      -0.117760        -3.2044
  35   2.0000      -0.069659        -1.8955
  36   2.0000      -0.053984        -1.4690
  37   0.0000       0.149453         4.0668
  38   0.0000       0.189498         5.1565
  39   0.0000       0.197328         5.3696
  40   0.0000       0.214778         5.8444
  41   0.0000       0.231872         6.3095

MULLIKEN ATOMIC CHARGES
-----------------------
   0 C :    0.039827
   1 C :    0.039763
   2 H :   -0.031925
   3 H :   -0.020946
   4 H :   -0.035402
   5 C :    0.364869
   6 H :   -0.038381
   7 H :   -0.007639
   8 H :   -0.062281
   9 O :   -0.355760
  10 H :   -0.045661
  11 S :    0.843710
  12 O :   -0.608436
  13 O :   -0.539327
  14 O :   -0.542413
Sum of atomic charges:   -1.0000000

LOEWDIN ATOMIC CHARGES
----------------------
   0 C :    0.215892
   1 C :    0.140475
   2 H :   -0.082444
   3 H :   -0.076390
   4 H :   -0.079787
   5 C :   -0.009295
   6 H :   -0.077950
   7 H :   -0.071699
   8 H :   -0.090550
   9 O :    0.173819
  10 H :   -0.090454
  11 S :   -0.026994
  12 O :   -0.425739
  13 O :   -0.251387
  14 O :   -0.247499

  Mayer bond orders larger than 0.100000
B(  0-C ,  1-C ) :   0.9576 B(  0-C ,  2-H ) :   0.9781 B(  0-C ,  3-H ) :   0.9837
B(  0-C ,  4-H ) :   0.9859 B(  1-C ,  5-C ) :   0.9651 B(  1-C ,  6-H ) :   0.9765
B(  1-C ,  7-H ) :   0.9737 B(  5-C ,  8-H ) :   0.9792 B(  5-C ,  9-O ) :   0.9035
B(  5-C , 10-H ) :   0.9642 B(  9-O , 11-S ) :   1.1170 B( 11-S , 12-O ) :   1.7735
B( 11-S , 13-O ) :   1.9315 B( 11-S , 14-O ) :   1.8803

FINAL SINGLE POINT ENERGY      -817.725229524482

DIPOLE MOMENT
-------------
                                X             Y             Z
Electronic contribution:     14.12886      -3.93076       0.92905
Nuclear contribution   :    -17.35976       4.20363      -1.26606
                        -----------------------------------------
Total Dipole Moment    :     -3.23090       0.27287      -0.33700
                        -----------------------------------------
Magnitude (a.u.)       :      3.25987
Magnitude (Debye)      :      8.28593

Rotational constants in cm-1:     0.135735     0.032089     0.031550
Rotational constants in MHz :  4069.227118   962.000297   945.848358

                             ****ORCA TERMINATED NORMALLY****
TOTAL RUN TIME: 0 days 0 hours 3 minutes 41 seconds 316 msec
